0.043799304698 
0.047276812787 
0.023147532310 
0.025769320268 
0.024460446748 
0.037199662627 
0.028633235503 
0.028615327744 
0.058368709032 
0.058256457237 
0.053880807383 
0.054803274407 
0.027689645764 
0.027589440958 
0.049636186702 
0.049940161179 
0.063481207977 
0.063113485977 
0.031161882769 
0.031133656989 
0.068215653490 
0.068316738902 
0.060317973981 
0.061489729416 
0.011735491501 
0.011792718941 
0.029268067353 
0.028573028810 
0.008733245563 
0.008624829087 
0.027215504204 
0.027209553975 
0.056318714936 
0.055261836565 
0.067908607306 
0.067092805390 
0.024343091658 
0.024488991126 
0.058301479602 
0.059445348830 
0.073368188644 
0.072955160635 
0.007527560666 
0.007402274554 
0.013283010677 
0.013244361296 
0.028243444264 
0.027603144149 
0.048410569878 
0.047901435052 
0.051093939371 
0.051377320752 
0.050162018953 
0.050495450517 
0.050084449245 
0.050594499919 
0.058639964952 
0.057854199538 
0.058808809128 
0.058306545515 
0.015572934385 
0.015685828800 
0.012095170191 
0.012095154211 
0.017424829819 
0.017245016156 
0.005414954904 
0.005469651955 
0.012948501469 
0.012925580873 
0.027901315782 
0.028654270043 
0.013382118435 
0.013401818510 
0.027433942708 
0.028105290766 
0.006564958701 
0.006478735593 
0.060036641736 
0.060719439392 
0.056620805925 
0.055989054343 
0.062047191735 
0.061131705501 
0.006640142125 
0.006727689282 
0.010476116571 
0.010576383584 
0.031990893069 
0.032979699500 
0.030261228306 
0.029455876958 
0.006940264447 
0.006854900687 
0.012196676217 
0.012249560263 
0.013886744504 
0.013892191367 
0.028064763747 
0.028809599220 
0.005930336729 
0.005876227224 
0.063337661977 
0.063948302260 
0.059693872917 
0.058933736406 
0.055135591659 
0.054825804922 
0.018376859655 
0.018576743785 
0.013068090177 
0.013093950788 
0.017031041608 
0.016898634596 
0.011034607596 
0.010972849855 
0.029931974058 
0.030776324348 
0.007750022252 
0.007646993570 
0.028841989332 
0.028159358895 
0.006170621038 
0.006102561938 
0.014104182553 
0.014072816152 
0.048847493114 
0.049028411387 
0.049000390350 
0.049616034909 
0.050123201782 
0.050706849448 
0.062460716119 
0.062537508519 
0.052511682654 
0.051912314193 
0.062970380137 
0.061513228855 
0.026114634171 
0.025540485128 
0.009259344906 
0.009336066824 
0.013965101222 
0.013973252825 
0.006979471128 
0.007064995258 
0.005864496837 
0.005835588488 
0.035356578110 
0.036604145178 
0.022825853676 
0.023240719943 
0.019286828401 
0.019045001889 
0.005427880644 
0.005479453055 
0.052744174052 
0.052634094668 
0.061810849039 
0.060533638688 
0.063620484348 
0.062281162558 
0.006620550342 
0.006535479926 
0.035102971559 
0.036294822144 
0.007453748089 
0.007550325458 
0.008374825718 
0.008454257227 
0.005225116993 
0.005232173260 
0.034035520202 
0.035188111458 
0.023121888711 
0.022710733061 
0.009764453655 
0.009852056313 
0.015840634921 
0.015764295665 
0.055065159686 
0.054803730975 
0.063612898176 
0.062464790565 
0.057042589634 
0.055896315145 
0.023675600177 
0.024229929010 
0.016446307309 
0.016307328136 
0.005064007516 
0.005080904832 
0.009464849680 
0.009565303031 
0.005256942102 
0.005288323056 
0.034201316926 
0.035314532429 
0.008772373343 
0.008680838773 
0.034229881422 
0.035361827364 
0.006045266583 
0.006127642531 
0.048218233539 
0.048578753457 
0.051454179783 
0.052210884182 
0.052005506820 
0.051920170453 
0.028182083309 
0.028228744755 
0.058452081583 
0.058576982894 
0.054217864387 
0.055099398330 
0.026279304455 
0.026363423781 
0.049654729091 
0.049332283707 
0.063002012489 
0.062666621247 
0.029500682025 
0.029532503281 
0.068499707168 
0.068403988719 
0.061743342244 
0.063024366226 
0.011015862462 
0.010939462140 
0.028662292094 
0.029365821528 
0.009443597985 
0.009336241604 
0.026546786979 
0.026568910007 
0.055780427354 
0.056846459068 
0.069064286678 
0.068160271728 
0.023370185655 
0.023217096802 
0.059446590840 
0.058302223095 
0.074854811424 
0.074511338919 
0.006589542348 
0.006717110447 
0.012861931368 
0.012909172085 
0.029406626055 
0.028698883636 
0.047778530657 
0.048338579152 
0.051593834534 
0.051306135727 
0.050137892731 
0.050479733003 
0.050812777911 
0.050281433879 
0.057486629061 
0.058214733866 
0.058484792435 
0.057992158137 
0.014772002621 
0.014686114234 
0.012201624421 
0.012201618000 
0.017782469502 
0.017577100272 
0.005364150955 
0.005314312220 
0.012808484458 
0.012832096898 
0.027768618564 
0.028518858096 
0.014163257526 
0.014121465811 
0.027694296343 
0.027057449741 
0.006397984030 
0.006314430421 
0.064150497340 
0.063382610863 
0.058771990444 
0.059494102644 
0.054713913103 
0.054375702408 
0.011728424391 
0.011775579358 
0.030249994437 
0.029437254384 
0.007471235234 
0.007370454296 
0.029454862377 
0.030208151359 
0.006306890049 
0.006382957789 
0.012769340413 
0.012778606757 
0.016928630435 
0.016800140638 
0.013432230254 
0.013414430645 
0.018133364527 
0.017946065424 
0.060964246155 
0.060186797992 
0.055995774033 
0.056603967250 
0.061726818744 
0.060753262701 
0.006190679663 
0.006113573372 
0.010462566188 
0.010363757483 
0.032592510559 
0.033622056313 
0.030424214993 
0.031301416244 
0.006793551574 
0.006878457197 
0.011148739026 
0.011222665746 
0.014094231071 
0.014083425949 
0.028834975869 
0.028088856582 
0.005734029671 
0.005688841800 
0.048320622740 
0.048148382836 
0.049371233995 
0.048784674564 
0.049140401654 
0.049715347551 
0.052598597464 
0.052697537004 
0.060249174954 
0.061521155883 
0.063541373008 
0.062191963479 
0.022747282370 
0.023162423150 
0.009584774822 
0.009494209319 
0.015960720432 
0.015878193817 
0.008492628672 
0.008412734888 
0.005230301329 
0.005221409942 
0.033971003503 
0.035116245290 
0.006589558756 
0.006678033460 
0.036227460880 
0.035034416083 
0.007307035929 
0.007402916889 
0.062527746942 
0.062432214829 
0.051798249394 
0.052399593084 
0.063094172129 
0.061616756053 
0.023166198401 
0.022756637317 
0.019160529990 
0.019405334470 
0.005523632480 
0.005577089806 
0.025717097247 
0.026305999303 
0.009110277709 
0.009038017180 
0.013637550974 
0.013652374042 
0.006872110466 
0.006787336250 
0.005835175008 
0.005862031225 
0.035532873056 
0.036794323946 
0.054665708599 
0.054936276955 
0.062560328528 
0.063708745607 
0.055609932397 
0.054505112475 
0.024545064589 
0.023988000626 
0.016471517026 
0.016607744945 
0.005136412578 
0.005158877033 
0.009384703071 
0.009289334039 
0.005240352257 
0.005208197705 
0.032864433212 
0.033956384892 
0.008524509996 
0.008614437017 
0.035291091345 
0.034156627428 
0.005970990589 
0.006046839034 
0.049041605362 
0.048764048510 
0.052733256785 
0.052024459550 
0.052018058174 
0.051935340513 
0.052650154323 
0.052881987121 
0.061087881486 
0.062348211358 
0.061426647055 
0.061565584994 
0.006126487270 
0.006202655027 
0.035397754598 
0.034243678780 
0.007561591429 
0.007650215945 
0.022373915043 
0.022745440687 
0.005099751267 
0.005087833830 
0.021337920401 
0.021638835155 
0.008506742632 
0.008426758961 
0.014367273601 
0.014387878681 
0.025835730585 
0.025283358577 
0.062818270339 
0.063411543896 
0.050446105305 
0.051457295863 
0.062842931602 
0.063122261081 
0.028637967122 
0.027931060508 
0.012126888149 
0.012110966463 
0.007921841258 
0.007829882365 
0.008992731860 
0.008910933186 
0.013232764027 
0.013249787042 
0.025893275911 
0.025338935950 
0.020411941366 
0.020660753947 
0.005617158259 
0.005598546243 
0.023149698585 
0.023548075595 
0.057532559141 
0.058151349171 
0.063511754409 
0.064814182181 
0.056539157205 
0.056781758600 
0.006220067695 
0.006288001667 
0.035021222822 
0.033910624456 
0.008681283499 
0.008771512711 
0.008416204381 
0.008314449382 
0.014453767939 
0.014492152654 
0.025901661220 
0.025344929411 
0.030340295701 
0.029516359732 
0.009731100896 
0.009656462215 
0.008867366419 
0.008767246078 
0.036592859661 
0.034807563592 
0.037117742534 
0.028665521318 
0.040931981465 
0.034750855641 
0.028614533743 
0.028628622877 
0.058228820859 
0.058346604267 
0.054760594381 
0.053834990874 
0.027615271750 
0.027716395543 
0.049959417384 
0.049648163636 
0.063113240571 
0.063482541871 
0.031115752084 
0.031142965565 
0.068354386972 
0.068244128670 
0.061488571872 
0.060317999520 
0.011795948878 
0.011737495266 
0.028578105995 
0.029273569432 
0.008624468968 
0.008732265795 
0.027226871048 
0.027234890959 
0.055315091431 
0.056379814363 
0.067051728205 
0.067871685180 
0.024514813643 
0.024364335935 
0.059479434952 
0.058328936492 
0.072905728674 
0.073317582589 
0.007411228148 
0.007535635223 
0.013232339561 
0.013271421827 
0.027598600293 
0.028240144700 
0.047901663336 
0.048412547676 
0.051375099546 
0.051093097572 
0.050498313487 
0.050171618449 
0.050586829996 
0.050083542671 
0.057825067327 
0.058611789252 
0.058278831235 
0.058787457273 
0.015675424459 
0.015561675405 
0.012107416214 
0.012107012579 
0.017218924692 
0.017398227711 
0.005465167597 
0.005409810661 
0.012890840003 
0.012912344809 
0.028686356680 
0.027931175935 
0.013415630564 
0.013394971837 
0.028108974561 
0.027437685856 
0.006460895748 
0.006546473668 
0.060739051007 
0.060053064506 
0.056003403007 
0.056628213607 
0.061133845238 
0.062049339034 
0.006709295135 
0.006622162457 
0.010569758204 
0.010469702925 
0.033002531350 
0.032012402441 
0.029497862857 
0.030306393776 
0.006847161993 
0.006933832110 
0.012222897946 
0.012169779052 
0.013882043275 
0.013877961125 
0.028827523529 
0.028081337041 
0.005869151268 
0.005923087705 
0.063964702058 
0.063352440387 
0.058929391301 
0.059689380996 
0.054838510511 
0.055150292737 
0.018563460209 
0.018364734051 
0.013095482148 
0.013069344028 
0.016913015220 
0.017047048187 
0.010977664228 
0.011039309539 
0.030771310512 
0.029927161683 
0.007644704307 
0.007748771683 
0.028175467346 
0.028858845271 
0.006103294302 
0.006171699396 
0.014063272158 
0.014093445916 
0.049039422536 
0.048865054879 
0.049607007265 
0.049002954125 
0.050706660400 
0.050114892520 
0.062525468237 
0.062446273002 
0.051917382674 
0.052515500851 
0.061516150608 
0.062972187007 
0.025555325317 
0.026130824234 
0.009303379656 
0.009225844191 
0.013986579347 
0.013979507671 
0.007072662043 
0.006987042033 
0.005832491954 
0.005860634125 
0.036594729309 
0.035347834537 
0.023196302960 
0.022783879904 
0.019090793429 
0.019335182289 
0.005479424805 
0.005427428356 
0.052666108397 
0.052762035298 
0.060519584225 
0.061802284099 
0.062266316091 
0.063609164730 
0.006546856044 
0.006632144186 
0.036284798325 
0.035093715488 
0.007550902019 
0.007454484163 
0.008425773058 
0.008345256200 
0.005232760379 
0.005226369846 
0.035215247894 
0.034060831933 
0.022779566759 
0.023194233278 
0.009821553113 
0.009733967148 
0.015725104822 
0.015800174246 
0.054751475852 
0.055009337336 
0.062458556836 
0.063601400640 
0.055902623210 
0.057049512069 
0.024180362504 
0.023627372987 
0.016308605672 
0.016448574172 
0.005086183192 
0.005067878218 
0.009526988656 
0.009427129986 
0.005293982651 
0.005262026135 
0.035343843272 
0.034229418148 
0.008690291882 
0.008781694760 
0.035359256169 
0.034226835539 
0.006111565469 
0.006029855969 
0.048579571713 
0.048223637884 
0.052205273383 
0.051455368288 
0.051930643707 
0.052014382797 
0.028272688904 
0.028224825257 
0.058536471141 
0.058429871236 
0.055133838721 
0.054251815393 
0.026378013856 
0.026295282784 
0.049304248687 
0.049624388115 
0.062652311248 
0.062992139623 
0.029612792283 
0.029588099630 
0.068329814311 
0.068436802869 
0.063012128192 
0.061727935910 
0.010975015845 
0.011049193819 
0.029341673333 
0.028639562544 
0.009324008136 
0.009430826194 
0.026586318108 
0.026566734172 
0.056775752298 
0.055704464909 
0.068179747657 
0.069083412048 
0.023242241600 
0.023396468593 
0.058260905784 
0.059402864701 
0.074533791675 
0.074879783868 
0.006728835126 
0.006600593589 
0.012922322400 
0.012875540106 
0.028684780805 
0.029391837087 
0.048332531759 
0.047780113666 
0.051302998245 
0.051593282800 
0.050479347203 
0.050135433110 
0.050292116299 
0.050821912848 
0.058202519088 
0.057476216587 
0.057995944803 
0.058481599737 
0.014708750759 
0.014794417567 
0.012192135072 
0.012191643262 
0.017587065737 
0.017792424123 
0.005324525230 
0.005374426029 
0.012867583972 
0.012843413234 
0.028473640834 
0.027726391398 
0.014114188252 
0.014155644674 
0.027017579466 
0.027652126247 
0.006332366145 
0.006417180739 
0.063379409604 
0.064145144216 
0.059500771255 
0.058775305702 
0.054383658685 
0.054728113811 
0.011802292184 
0.011756485235 
0.029402837535 
0.030213183458 
0.007378725177 
0.007478638778 
0.030177331842 
0.029425042888 
0.006400338354 
0.006324115238 
0.012784083439 
0.012775225011 
0.016787930141 
0.016916333332 
0.013429626102 
0.013446842159 
0.017946466776 
0.018133304175 
0.060181021829 
0.060953016138 
0.056595862017 
0.055987411124 
0.060769283405 
0.061740112165 
0.006130038945 
0.006207794847 
0.010364546062 
0.010463519703 
0.033603182341 
0.032574567416 
0.031258276083 
0.030384019842 
0.006888782209 
0.006804841087 
0.011254591157 
0.011181260545 
0.014094879826 
0.014106355248 
0.028071985805 
0.028816760782 
0.005694291944 
0.005740030979 
0.048129054721 
0.048303579037 
0.048787955722 
0.049376250827 
0.049714363361 
0.049146536365 
0.052683008423 
0.052579276340 
0.061512249088 
0.060237896570 
0.062202085032 
0.063543103830 
0.023111247097 
0.022698427969 
0.009503965760 
0.009594593899 
0.015918028707 
0.016002131483 
0.008440779895 
0.008519680072 
0.005220023544 
0.005229847899 
0.035089260093 
0.033945690345 
0.006676955530 
0.006588256537 
0.035036640000 
0.036229589488 
0.007398454645 
0.007302635608 
0.062431449078 
0.062525936933 
0.052402194241 
0.051802264343 
0.061618029023 
0.063093659917 
0.022772567421 
0.023182293297 
0.019387149204 
0.019143310508 
0.005574763161 
0.005521345357 
0.026292242893 
0.025704314185 
0.009048513690 
0.009119649206 
0.013658562543 
0.013643672131 
0.006789701560 
0.006874070430 
0.005862064326 
0.005834472606 
0.036792024124 
0.035530853596 
0.054979853567 
0.054703976603 
0.063700844831 
0.062552052510 
0.054482431578 
0.055583620638 
0.024013272693 
0.024570675373 
0.016620734890 
0.016484694307 
0.005153250968 
0.005131897971 
0.009333809520 
0.009429525687 
0.005205365696 
0.005237770790 
0.033917791440 
0.032828236317 
0.008616125036 
0.008525416285 
0.034143998885 
0.035277909926 
0.006050398842 
0.005974642852 
0.048761080102 
0.049043000178 
0.052030707975 
0.052737883679 
0.051933936708 
0.052014763747 
0.052879128431 
0.052650012216 
0.062358138584 
0.061103508543 
0.061580601248 
0.061441526623 
0.006194809896 
0.006117901927 
0.034277775603 
0.035433931376 
0.007634103499 
0.007545592555 
0.022733552927 
0.022362063237 
0.005089853432 
0.005102903159 
0.021660231953 
0.021358533613 
0.008427029620 
0.008505641018 
0.014369132263 
0.014350126029 
0.025305302259 
0.025859295942 
0.063413022465 
0.062814255390 
0.051453288761 
0.050441164520 
0.063130090232 
0.062854818364 
0.027971160922 
0.028681653310 
0.012100770432 
0.012117959666 
0.007795547984 
0.007888239384 
0.008925345200 
0.009007031872 
0.013226261350 
0.013210214536 
0.025346531681 
0.025900979506 
0.020612473395 
0.020366319327 
0.005605053058 
0.005624508014 
0.023591814146 
0.023190925011 
0.058180848491 
0.057556714184 
0.064819426013 
0.063505184816 
0.056781083021 
0.056536580019 
0.006274105576 
0.006206445545 
0.033942300466 
0.035056115073 
0.008750362460 
0.008659919374 
0.008317296657 
0.008418846771 
0.014464184978 
0.014427280830 
0.025369805546 
0.025928162455 
0.029556471559 
0.030382460375 
0.009644539214 
0.009719939793 
0.008739684606 
0.008839781690 
0.017803284176 
0.017751287727 
0.018451950624 
0.018519605661 
0.016294710865 
0.016520312929 
0.005288469728 
0.005859083789 
0.044565498019 
0.042997031906 
0.006283007948 
0.005254509734 
0.014191993093 
0.013463645022 
0.015038125569 
0.015335517041 
0.026689691357 
0.027315878368 
0.017932786841 
0.018489808001 
0.017619215722 
0.018165703561 
0.018463365693 
0.018195155085 
0.005667137246 
0.006544114778 
0.040181751207 
0.041722505037 
0.005795144079 
0.006701905573 
0.020017011163 
0.020019341803 
0.020141563912 
0.019893444317 
0.013408049672 
0.013414168404 
0.041718375517 
0.043177102532 
0.005213708773 
0.005571480576 
0.005169062792 
0.005870492723 
0.014129567049 
0.015136401944 
0.019372354386 
0.020045689231 
0.020778849248 
0.020916282223 
0.019614990166 
0.019253834191 
0.020457542859 
0.020166851388 
0.015296082219 
0.014912973574 
0.043271786568 
0.041359268251 
0.006680845209 
0.006564320789 
0.005239276895 
0.005908548566 
0.017213164366 
0.016899380658 
0.018015784293 
0.018441755306 
0.017416558367 
0.017547950370 
0.005420984604 
0.005635210978 
0.043280917511 
0.045066415040 
0.006605903195 
0.006636928025 
0.013396229969 
0.012521360784 
0.013905863311 
0.014340409537 
0.026618802959 
0.027018544538 
0.017425176526 
0.016794353632 
0.018160064940 
0.017333354889 
0.018562858965 
0.019329873681 
0.006481892764 
0.006541911550 
0.042002195062 
0.040117541550 
0.007441942226 
0.007509119150 
0.019379695722 
0.018360390800 
0.019896427564 
0.019530630856 
0.016096192018 
0.016488186628 
0.043813852113 
0.042375551261 
0.005700411817 
0.005299624839 
0.004940888963 
0.005729822107 
0.016509009719 
0.015960438929 
0.018358890116 
0.017708959830 
0.021730624404 
0.020931645611 
0.017959447590 
0.017337017852 
0.020749648552 
0.020524706087 
0.017280229003 
0.016532723603 
0.041438491879 
0.042834262089 
0.006526812401 
0.006009917051 
0.005613816891 
0.006385057006 
0.035700933076 
0.035549354609 
0.064139125359 
0.065598543790 
0.039021541819 
0.038972094592 
0.038607284500 
0.038837524729 
0.070564458414 
0.069392532908 
0.047254946008 
0.046814784560 
0.039462804168 
0.039303762375 
0.072796511634 
0.074353516307 
0.051202023122 
0.051467414705 
0.038282852900 
0.038465066544 
0.075735630695 
0.074258920731 
0.053262221810 
0.052829576050 
0.038170628642 
0.037954368113 
0.074582458027 
0.076044619008 
0.051163847431 
0.051533542093 
0.039271219598 
0.039489399998 
0.067592987621 
0.066083098536 
0.051601175728 
0.051252198434 
0.067255517280 
0.065789222642 
0.038167920049 
0.037976740113 
0.036616798832 
0.036556246860 
0.069991146319 
0.071162357724 
0.043510439501 
0.043589409305 
0.041973544388 
0.042294458128 
0.073907965068 
0.072375237713 
0.047161690175 
0.047028544093 
0.043372632568 
0.043081393927 
0.075431791905 
0.076927232879 
0.047322224661 
0.047390054764 
0.042563770921 
0.042836972537 
0.077093865266 
0.075608488347 
0.046073624749 
0.045986032220 
0.042485216880 
0.042213259414 
0.067988166654 
0.069567713684 
0.045797166944 
0.045813923579 
0.045254010914 
0.045435802089 
0.033990166112 
0.034112773165 
0.065418776069 
0.063959758135 
0.039919260404 
0.039859819320 
0.037493337631 
0.037300078881 
0.069292929203 
0.070455676113 
0.048232462925 
0.047801828208 
0.038015330711 
0.038115446486 
0.074758051142 
0.073177596539 
0.052352464369 
0.052634598320 
0.037041554374 
0.036900275665 
0.074763707884 
0.076237475835 
0.053980787329 
0.053584298515 
0.036256023950 
0.036438299231 
0.076080614300 
0.074591967351 
0.051958950385 
0.052349262683 
0.037691837788 
0.037506185612 
0.065798733107 
0.067310665050 
0.052771856800 
0.052420512198 
0.065301551672 
0.066830562703 
0.037156674275 
0.037351916244 
0.037475994020 
0.037487807588 
0.071673631431 
0.070454592619 
0.041996747343 
0.041835314130 
0.043663444459 
0.043943716038 
0.072757648807 
0.074322354221 
0.045524857064 
0.045749857884 
0.045545723957 
0.045300092660 
0.076914307567 
0.075407314981 
0.046138780644 
0.045976212430 
0.044743147404 
0.044991395981 
0.075390535232 
0.076885426041 
0.043999656954 
0.044174102940 
0.044494135788 
0.044283736172 
0.069288858894 
0.067723929333 
0.043422152275 
0.043308849089 
0.046373461145 
0.046523839122 
0.029555957920 
0.029555076457 
0.030200846976 
0.030192355943 
0.033583619949 
0.033566862030 
0.017429401925 
0.017732676995 
0.018803422209 
0.018872526566 
0.016722008352 
0.016388723175 
0.005870805187 
0.004991392005 
0.043024998012 
0.044693152723 
0.005361559928 
0.006404463594 
0.013549228507 
0.014168529751 
0.015271538950 
0.015102660103 
0.027383967288 
0.026770120326 
0.018431655725 
0.017899319227 
0.018171973959 
0.017776458492 
0.018132656846 
0.018081503765 
0.006624146817 
0.005728293030 
0.041540353886 
0.040129192323 
0.007321118643 
0.006499263199 
0.019995150662 
0.020076004953 
0.019693175670 
0.020258855652 
0.013820586727 
0.013308437692 
0.043148799992 
0.041677732358 
0.005537617174 
0.005375970515 
0.005930087899 
0.005390660179 
0.015321471281 
0.014411676174 
0.020175675003 
0.019649156330 
0.020917990217 
0.020839390234 
0.018900203036 
0.019568537600 
0.019715268878 
0.019988990554 
0.014557022908 
0.015110161667 
0.041364337446 
0.043174532907 
0.005768593620 
0.006482616140 
0.006283161755 
0.005616902866 
0.016536175118 
0.016853094739 
0.019138296958 
0.018315892633 
0.017613015665 
0.017593487373 
0.005801401350 
0.005393752432 
0.044969633642 
0.043373292452 
0.006639529182 
0.006691399646 
0.012629288875 
0.013721229854 
0.015164906943 
0.014762690477 
0.027164761892 
0.026923770187 
0.016830916781 
0.017304000814 
0.017351984311 
0.017247754426 
0.019303751113 
0.018654041406 
0.006438520752 
0.006648796809 
0.039886288024 
0.041893103292 
0.007162724464 
0.007551011024 
0.017718105183 
0.018901825995 
0.019666438304 
0.018949267317 
0.016329652054 
0.016054532993 
0.042612218263 
0.044105937117 
0.005296997287 
0.004550865159 
0.005202583482 
0.004376662153 
0.016170382262 
0.016552917343 
0.018525621950 
0.018147349079 
0.021012728614 
0.021848727124 
0.018099881932 
0.017702893461 
0.019866240680 
0.020675901179 
0.016451289328 
0.017159876399 
0.043094597175 
0.041750360283 
0.005519735240 
0.006425739401 
0.006613982033 
0.006160407743 
0.035524937753 
0.035673187977 
0.065614667935 
0.064149420694 
0.038991918227 
0.039038437851 
0.038767461864 
0.038540078184 
0.069398696440 
0.070561523820 
0.046895147897 
0.047333854318 
0.039235451449 
0.039391530254 
0.074349635189 
0.072790480649 
0.051548735266 
0.051280933572 
0.038410204842 
0.038228345895 
0.074246708236 
0.075716556404 
0.052895541641 
0.053332632666 
0.037929733815 
0.038144778160 
0.076034638563 
0.074569655846 
0.051585581630 
0.051212280077 
0.039464373337 
0.039248395737 
0.066078640573 
0.067590640859 
0.051304868892 
0.051654781581 
0.065779624858 
0.067243332750 
0.037982367605 
0.038172657661 
0.036539545441 
0.036596960787 
0.071165909256 
0.069994081341 
0.043636423450 
0.043554778582 
0.042256496167 
0.041937787796 
0.072408233634 
0.073941099815 
0.047069908488 
0.047205338982 
0.043034403181 
0.043318205747 
0.076949059993 
0.075457630687 
0.047440349782 
0.047372207786 
0.042757988322 
0.042483499041 
0.075603793253 
0.077089760287 
0.046011882131 
0.046107043995 
0.042131817291 
0.042414344889 
0.069554851864 
0.067977580399 
0.045810945326 
0.045796081452 
0.045390155510 
0.045200612514 
0.034050365813 
0.033931365222 
0.063944506320 
0.065410454965 
0.039900123905 
0.039963890547 
0.037229536191 
0.037422457793 
0.070453882084 
0.069295170384 
0.047889243959 
0.048322291213 
0.038005449998 
0.037906289878 
0.073150951057 
0.074728426123 
0.052726358891 
0.052444165158 
0.036787424339 
0.036926953535 
0.076203452206 
0.074740308176 
0.053675931960 
0.054073670630 
0.036321977556 
0.036143907414 
0.074592074787 
0.076058003457 
0.052441133258 
0.052048173576 
0.037418560553 
0.037605353294 
0.067324327863 
0.065808245998 
0.052516628576 
0.052874646926 
0.066906680380 
0.065376934988 
0.037311920985 
0.037111480126 
0.037445535620 
0.037430949112 
0.070506373054 
0.071729044725 
0.041828224905 
0.041981881472 
0.043858026259 
0.043581436477 
0.074413745685 
0.072844354879 
0.045782529072 
0.045566348013 
0.045191373422 
0.045432524212 
0.075528470861 
0.077043906967 
0.046052347800 
0.046207540434 
0.044846609969 
0.044611035878 
0.076981227671 
0.075479662259 
0.044233228421 
0.044073285334 
0.044197266088 
0.044409382973 
0.067767374254 
0.069333386596 
0.043352218390 
0.043444419407 
0.046457869679 
0.046305940225 
0.029533205969 
0.029536665759 
0.030192730472 
0.030200135157 
0.033556987594 
0.033572877891 
0.063399004527 
0.062813781414 
0.051009868555 
0.049943223041 
0.062697967529 
0.063086550146 
0.028276704282 
0.029011400224 
0.011306338633 
0.011341554905 
0.008278384178 
0.008187352690 
0.008039312629 
0.008127047550 
0.013260458903 
0.013243773036 
0.026807896377 
0.026202052490 
0.021226006467 
0.020937052524 
0.005789920935 
0.005821202014 
0.022022888041 
0.022367622958 
0.052456723932 
0.052106633466 
0.062506720106 
0.061239935212 
0.061953453366 
0.062018475715 
0.021464851158 
0.021154136304 
0.005103551344 
0.005123376976 
0.022514387766 
0.022875683422 
0.008886559418 
0.008963619910 
0.014556201228 
0.014530408388 
0.025518201873 
0.025006273989 
0.005974355927 
0.005906605439 
0.034355019578 
0.035526155934 
0.007578172000 
0.007667253798 
0.058698439680 
0.058034746564 
0.064045852405 
0.062689505175 
0.055279741042 
0.055515975731 
0.009304296646 
0.009396739644 
0.013155648462 
0.013159409160 
0.025999701463 
0.025425288752 
0.029727156705 
0.030566947302 
0.010354598148 
0.010417175001 
0.007866227217 
0.007767569179 
0.006211767707 
0.006143622572 
0.033746682684 
0.034875867384 
0.007743212105 
0.007822533038 
0.062817089824 
0.063396146836 
0.049949547514 
0.051007287373 
0.063083603709 
0.062691962369 
0.028990469554 
0.028258080852 
0.011337422532 
0.011302842888 
0.008215029160 
0.008305557853 
0.008109885995 
0.008022438713 
0.013261724739 
0.013279564584 
0.026201193571 
0.026806589307 
0.020974101918 
0.021265194314 
0.005815874287 
0.005784930070 
0.022332537664 
0.021990498356 
0.052109874817 
0.052454868551 
0.061259578930 
0.062523213074 
0.062020468352 
0.061959545132 
0.021144978823 
0.021455130957 
0.005119472174 
0.005100706779 
0.022886819841 
0.022524547129 
0.008974035094 
0.008896391479 
0.014557582633 
0.014584016952 
0.024975415093 
0.025485161436 
0.005908851042 
0.005976317460 
0.035506776598 
0.034337312709 
0.007687805517 
0.007598186395 
0.058040706210 
0.058701299226 
0.062691959801 
0.064058033082 
0.055511987605 
0.055278144051 
0.009407120157 
0.009314476126 
0.013162279549 
0.013158894950 
0.025413402989 
0.025987751638 
0.030559439889 
0.029719976309 
0.010426654220 
0.010364417367 
0.007767181952 
0.007865877799 
0.006148955720 
0.006217194309 
0.034862395759 
0.033734491734 
0.007829705730 
0.007750277931 
